# vtk DataFile Version 2.0
./meshes/ITMM3cube.thrm
ASCII
DATASET UNSTRUCTURED_GRID
POINTS 16 float
   0.0000000000000000        0.0000000000000000        0.0000000000000000     
   1.0000000000000000        0.0000000000000000        0.0000000000000000     
   0.0000000000000000        1.0000000000000000        0.0000000000000000     
   1.0000000000000000        1.0000000000000000        0.0000000000000000     
   0.0000000000000000        0.0000000000000000        1.0000000000000000     
   1.0000000000000000        0.0000000000000000        1.0000000000000000     
   0.0000000000000000        1.0000000000000000        1.0000000000000000     
   1.0000000000000000        1.0000000000000000        1.0000000000000000     
   2.0000000000000000        0.0000000000000000        0.0000000000000000     
   2.0000000000000000        1.0000000000000000        0.0000000000000000     
   2.0000000000000000        0.0000000000000000        1.0000000000000000     
   2.0000000000000000        1.0000000000000000        1.0000000000000000     
   3.0000000000000000        0.0000000000000000        0.0000000000000000     
   3.0000000000000000        1.0000000000000000        0.0000000000000000     
   3.0000000000000000        0.0000000000000000        1.0000000000000000     
   3.0000000000000000        1.0000000000000000        1.0000000000000000     
CELLS 15 75
4    0    4    5    6
4    3    5    6    7
4    0    1    3    5
4    0    2    3    6
4    0    3    5    6
4    5    7    3   11
4    3   11    5    8
4    3   11    9    8
4    5   11    8   10
4    3    1    8    5
4   10   11   14    8
4   11   13    8   14
4   11    9   13    8
4   11   13   14   15
4    8   14   13   12
CELL_TYPES 15
10 10 10 10 10 10 10 10 10 10 10 10 10 10 10 
CELL_DATA 15
SCALARS partitioning int 1
LOOKUP_TABLE partitioning
0
0
0
0
0
2
2
2
2
2
3
3
3
3
3
SCALARS region int 1
LOOKUP_TABLE region
1
1
1
1
1
2
2
2
2
2
3
3
3
3
3
SCALARS source int 1
LOOKUP_TABLE source
2
2
2
2
2
1
1
1
1
1
0
0
0
0
0
SCALARS BCs int 1
LOOKUP_TABLE BCs
0
0
0
0
0
0
0
0
0
0
0
0
0
0
0
