# vtk DataFile Version 3.0
3d_beavrs                                                               
ASCII
DATASET UNSTRUCTURED_GRID
POINTS          133 float
  3.92180E-01  0.00000E+00  0.00000E+00
  4.00050E-01  0.00000E+00  0.00000E+00
  4.57200E-01  0.00000E+00  0.00000E+00
 -6.29920E-01 -6.29920E-01  0.00000E+00
  6.29920E-01 -6.29920E-01  0.00000E+00
  6.29920E-01  6.29920E-01  0.00000E+00
 -6.29920E-01  6.29920E-01  0.00000E+00
  3.92180E-01  0.00000E+00  5.00000E+01
  4.00050E-01  0.00000E+00  5.00000E+01
  3.92180E-01  0.00000E+00  5.00000E+01
  4.57200E-01  0.00000E+00  5.00000E+01
  4.00050E-01  0.00000E+00  5.00000E+01
  6.29920E-01 -6.29920E-01  5.00000E+01
  6.29920E-01  6.29920E-01  5.00000E+01
 -6.29920E-01  6.29920E-01  5.00000E+01
 -6.29920E-01 -6.29920E-01  5.00000E+01
  4.57200E-01  0.00000E+00  5.00000E+01
 -1.02096E-15  3.92180E-01  0.00000E+00
 -3.92180E-01 -4.74462E-16  0.00000E+00
  6.24612E-16 -3.92180E-01  0.00000E+00
 -8.63794E-16  4.00050E-01  0.00000E+00
 -4.00050E-01 -4.83983E-16  0.00000E+00
  6.37146E-16 -4.00050E-01  0.00000E+00
 -5.81118E-16  4.57200E-01  0.00000E+00
 -4.57200E-01 -1.97439E-15  0.00000E+00
  1.94639E-15 -4.57200E-01  0.00000E+00
  3.92180E-01  0.00000E+00  1.25000E+01
  3.92180E-01  0.00000E+00  2.50000E+01
  3.92180E-01  0.00000E+00  3.75000E+01
 -1.02096E-15  3.92180E-01  5.00000E+01
 -3.92180E-01 -4.74462E-16  5.00000E+01
  6.24612E-16 -3.92180E-01  5.00000E+01
  4.00050E-01  0.00000E+00  1.25000E+01
  4.00050E-01  0.00000E+00  2.50000E+01
  4.00050E-01  0.00000E+00  3.75000E+01
 -8.63794E-16  4.00050E-01  5.00000E+01
 -4.00050E-01 -4.83983E-16  5.00000E+01
  6.37146E-16 -4.00050E-01  5.00000E+01
  3.92180E-01  0.00000E+00  1.25000E+01
  3.92180E-01  0.00000E+00  2.50000E+01
  3.92180E-01  0.00000E+00  3.75000E+01
 -1.02096E-15  3.92180E-01  5.00000E+01
 -3.92180E-01 -4.74462E-16  5.00000E+01
  6.24612E-16 -3.92180E-01  5.00000E+01
  4.57200E-01  0.00000E+00  1.25000E+01
  4.57200E-01  0.00000E+00  2.50000E+01
  4.57200E-01  0.00000E+00  3.75000E+01
 -5.81118E-16  4.57200E-01  5.00000E+01
 -4.57200E-01 -1.97439E-15  5.00000E+01
  1.94639E-15 -4.57200E-01  5.00000E+01
  4.00050E-01  0.00000E+00  1.25000E+01
  4.00050E-01  0.00000E+00  2.50000E+01
  4.00050E-01  0.00000E+00  3.75000E+01
 -8.63794E-16  4.00050E-01  5.00000E+01
 -4.00050E-01 -4.83983E-16  5.00000E+01
  6.37146E-16 -4.00050E-01  5.00000E+01
  6.29920E-01 -6.29920E-01  1.25000E+01
  6.29920E-01 -6.29920E-01  2.50000E+01
  6.29920E-01 -6.29920E-01  3.75000E+01
  6.29920E-01  6.29920E-01  1.25000E+01
  6.29920E-01  6.29920E-01  2.50000E+01
  6.29920E-01  6.29920E-01  3.75000E+01
 -6.29920E-01  6.29920E-01  1.25000E+01
 -6.29920E-01  6.29920E-01  2.50000E+01
 -6.29920E-01  6.29920E-01  3.75000E+01
 -6.29920E-01 -6.29920E-01  1.25000E+01
 -6.29920E-01 -6.29920E-01  2.50000E+01
 -6.29920E-01 -6.29920E-01  3.75000E+01
  4.57200E-01  0.00000E+00  1.25000E+01
  4.57200E-01  0.00000E+00  2.50000E+01
  4.57200E-01  0.00000E+00  3.75000E+01
 -5.81118E-16  4.57200E-01  5.00000E+01
 -4.57200E-01 -1.97439E-15  5.00000E+01
  1.94639E-15 -4.57200E-01  5.00000E+01
 -7.15450E-17 -6.60876E-17  0.00000E+00
 -1.02096E-15  3.92180E-01  1.25000E+01
 -1.02096E-15  3.92180E-01  2.50000E+01
 -1.02096E-15  3.92180E-01  3.75000E+01
 -3.92180E-01 -4.74462E-16  1.25000E+01
 -3.92180E-01 -4.74462E-16  2.50000E+01
 -3.92180E-01 -4.74462E-16  3.75000E+01
  6.24612E-16 -3.92180E-01  1.25000E+01
  6.24612E-16 -3.92180E-01  2.50000E+01
  6.24612E-16 -3.92180E-01  3.75000E+01
 -7.15450E-17 -6.60876E-17  5.00000E+01
 -8.63794E-16  4.00050E-01  1.25000E+01
 -8.63794E-16  4.00050E-01  2.50000E+01
 -8.63794E-16  4.00050E-01  3.75000E+01
 -4.00050E-01 -4.83983E-16  1.25000E+01
 -4.00050E-01 -4.83983E-16  2.50000E+01
 -4.00050E-01 -4.83983E-16  3.75000E+01
  6.37146E-16 -4.00050E-01  1.25000E+01
  6.37146E-16 -4.00050E-01  2.50000E+01
  6.37146E-16 -4.00050E-01  3.75000E+01
 -1.02096E-15  3.92180E-01  1.25000E+01
 -1.02096E-15  3.92180E-01  2.50000E+01
 -1.02096E-15  3.92180E-01  3.75000E+01
 -3.92180E-01 -4.74462E-16  1.25000E+01
 -3.92180E-01 -4.74462E-16  2.50000E+01
 -3.92180E-01 -4.74462E-16  3.75000E+01
  6.24612E-16 -3.92180E-01  1.25000E+01
  6.24612E-16 -3.92180E-01  2.50000E+01
  6.24612E-16 -3.92180E-01  3.75000E+01
 -5.81118E-16  4.57200E-01  1.25000E+01
 -5.81118E-16  4.57200E-01  2.50000E+01
 -5.81118E-16  4.57200E-01  3.75000E+01
 -4.57200E-01 -1.97439E-15  1.25000E+01
 -4.57200E-01 -1.97439E-15  2.50000E+01
 -4.57200E-01 -1.97439E-15  3.75000E+01
  1.94639E-15 -4.57200E-01  1.25000E+01
  1.94639E-15 -4.57200E-01  2.50000E+01
  1.94639E-15 -4.57200E-01  3.75000E+01
 -8.63794E-16  4.00050E-01  1.25000E+01
 -8.63794E-16  4.00050E-01  2.50000E+01
 -8.63794E-16  4.00050E-01  3.75000E+01
 -4.00050E-01 -4.83983E-16  1.25000E+01
 -4.00050E-01 -4.83983E-16  2.50000E+01
 -4.00050E-01 -4.83983E-16  3.75000E+01
  6.37146E-16 -4.00050E-01  1.25000E+01
  6.37146E-16 -4.00050E-01  2.50000E+01
  6.37146E-16 -4.00050E-01  3.75000E+01
 -5.81118E-16  4.57200E-01  1.25000E+01
 -5.81118E-16  4.57200E-01  2.50000E+01
 -5.81118E-16  4.57200E-01  3.75000E+01
 -4.57200E-01 -1.97439E-15  1.25000E+01
 -4.57200E-01 -1.97439E-15  2.50000E+01
 -4.57200E-01 -1.97439E-15  3.75000E+01
  1.94639E-15 -4.57200E-01  1.25000E+01
  1.94639E-15 -4.57200E-01  2.50000E+01
  1.94639E-15 -4.57200E-01  3.75000E+01
 -7.15450E-17 -6.60876E-17  1.25000E+01
 -7.15450E-17 -6.60876E-17  2.50000E+01
 -7.15450E-17 -6.60876E-17  3.75000E+01

CELLS          336         1680
           4            0           17           74          130
           4            0           26           75          130
           4            0           17           75          130
           4           26           75          130          131
           4           26           27           76          131
           4           26           75           76          131
           4           27           76          131          132
           4           27           28           77          132
           4           27           76           77          132
           4           28           77           84          132
           4            7           28           29           84
           4           28           29           77           84
           4           18           19           74          130
           4           18           78           81          130
           4           18           19           81          130
           4           78           81          130          131
           4           78           79           82          131
           4           78           81           82          131
           4           79           82          131          132
           4           79           80           83          132
           4           79           82           83          132
           4           80           83           84          132
           4           30           31           80           84
           4           31           80           83           84
           4           17           18           74          130
           4           17           75           78          130
           4           17           18           78          130
           4           75           78          130          131
           4           75           76           79          131
           4           75           78           79          131
           4           76           79          131          132
           4           76           77           80          132
           4           76           79           80          132
           4           77           80           84          132
           4           29           30           77           84
           4           30           77           80           84
           4            0           19           74          130
           4           19           26           81          130
           4            0           19           26          130
           4           26           81          130          131
           4           27           81           82          131
           4           26           27           81          131
           4           27           82          131          132
           4           28           82           83          132
           4           27           28           82          132
           4           28           83           84          132
           4            7           31           83           84
           4            7           28           83           84
           4            0            1           19           32
           4           19           26           32           81
           4            0           19           26           32
           4           26           32           33           81
           4           27           33           81           82
           4           26           27           33           81
           4           27           33           34           82
           4           28           34           82           83
           4           27           28           34           82
           4            8           28           34           83
           4            7            8           31           83
           4            7            8           28           83
           4            0            1           20           85
           4            0           26           32           85
           4            0            1           32           85
           4           26           32           85           86
           4           26           27           33           86
           4           26           32           33           86
           4           27           33           86           87
           4           27           28           34           87
           4           27           33           34           87
[...]
CELL_DATA          336
FIELD Neutronics_Edits           25
           1            1          336 float
 6.20107E+00
 6.10571E+00
 6.13347E+00
 5.51114E+00
 5.40190E+00
 5.43953E+00
 4.21564E+00
 4.10415E+00
 4.14671E+00
 2.46455E+00
 2.36680E+00
 2.40719E+00
 6.19888E+00
 6.10734E+00
 6.12960E+00
 5.50870E+00
 5.40623E+00
 5.43511E+00
 4.21327E+00
 4.11042E+00
 4.14236E+00
 2.46263E+00
 2.37363E+00
 2.40363E+00
 6.19814E+00
 6.10732E+00
 6.12914E+00
 5.50829E+00
 5.40657E+00
 5.43537E+00
 4.21310E+00
 4.11087E+00
 4.14310E+00
 2.46269E+00
 2.37410E+00
 2.40464E+00
 6.20118E+00
 6.10547E+00
 6.12766E+00
 5.51080E+00
 5.40343E+00
 5.43221E+00
 4.21506E+00
 4.10723E+00
 4.13908E+00
 2.46387E+00
 2.37066E+00
 2.40063E+00
 5.87186E+00
 5.86668E+00
 5.87553E+00
 5.21240E+00
 5.19487E+00
 5.21052E+00
 3.97989E+00
 3.95320E+00
 3.97347E+00
 2.32281E+00
 2.29228E+00
 2.31351E+00
 5.87685E+00
 5.86373E+00
 5.86329E+00
 5.22094E+00
 5.19053E+00
 5.19484E+00
 3.99071E+00
 3.94793E+00
 3.95592E+00
 2.33344E+00
 2.28703E+00
 2.29610E+00
 5.87812E+00
 5.86809E+00
 5.88170E+00
 5.22201E+00
 5.19416E+00
 5.22013E+00
 3.99134E+00
 3.95043E+00
 3.98483E+00
 2.33369E+00
 2.28814E+00
 2.32428E+00
 5.87037E+00
 5.86230E+00
 5.86159E+00
 5.21131E+00
 5.19131E+00
 5.19564E+00
 3.97925E+00
 3.95083E+00
 3.95873E+00
 2.32255E+00
 2.29141E+00
 2.30018E+00
 5.87572E+00
 5.86993E+00
 5.87893E+00
 5.21778E+00
 5.20010E+00
 5.21588E+00
 3.98607E+00
 3.95909E+00
 3.97951E+00
 2.32832E+00
 2.29735E+00
 2.31875E+00
 5.87424E+00
 5.86550E+00
 5.86481E+00
 5.21671E+00
 5.19648E+00
 5.20069E+00
 3.98542E+00
 3.95669E+00
 3.96470E+00
 2.32807E+00
 2.29648E+00
 2.30569E+00
 5.87514E+00
 5.86962E+00
 5.87856E+00
 5.21626E+00
 5.19880E+00
 5.21436E+00
 3.98381E+00
 3.95736E+00
 3.97736E+00
 2.32597E+00
 2.29572E+00
 2.31664E+00
 5.87377E+00
 5.86531E+00
 5.86477E+00
 5.21517E+00
 5.19525E+00
 5.19955E+00
 3.98315E+00
 3.95495E+00
 3.96294E+00
 2.32570E+00
 2.29474E+00
 2.30379E+00
 5.76514E+00
 5.77931E+00
 5.75992E+00
 5.12220E+00
 5.11480E+00
 5.10250E+00
 3.91534E+00
 3.88887E+00
 3.88500E+00
 2.28920E+00
 2.25046E+00
 2.25392E+00
 5.76718E+00
 5.77394E+00
 5.75371E+00
 5.12054E+00
 5.11153E+00
 5.09817E+00
 3.91023E+00
 3.88815E+00
 3.88267E+00
 2.28193E+00
 2.25254E+00
 2.25409E+00
 5.78327E+00
 5.80914E+00
 5.80801E+00
 5.13916E+00
 5.14156E+00
 5.15419E+00
 3.92886E+00
 3.90947E+00
 3.93342E+00
 2.29762E+00
 2.26226E+00
 2.29218E+00
 5.77907E+00
 5.79464E+00
 5.81091E+00
 5.13088E+00
 5.13080E+00
 5.14958E+00
 3.91773E+00
 3.90363E+00
 3.92251E+00
 2.28580E+00
 2.26171E+00
 2.27758E+00
 5.78451E+00
 5.79815E+00
 5.81407E+00
 5.13903E+00
 5.13707E+00
 5.15518E+00
 3.92759E+00
 3.91125E+00
 3.92931E+00
 2.29514E+00
 2.26872E+00
 2.28384E+00
 5.78198E+00
 5.79666E+00
 5.81304E+00
 5.13457E+00
 5.13369E+00
 5.15249E+00
 3.92186E+00
 3.90677E+00
 3.92560E+00
 2.28943E+00
 2.26431E+00
 2.28013E+00
 5.77254E+00
 5.77761E+00
 5.75742E+00
 5.12844E+00
 5.11748E+00
 5.10499E+00
 3.91979E+00
 3.89507E+00
 3.89156E+00
 2.29096E+00
 2.25860E+00
 2.26290E+00
 5.77004E+00
 5.77666E+00
 5.75618E+00
 5.12453E+00
 5.11518E+00
 5.10265E+00
 3.91487E+00
 3.89204E+00
 3.88838E+00
 2.28614E+00
 2.25575E+00
 2.25969E+00
 5.72136E+00
 5.71928E+00
 5.72401E+00
 5.08909E+00
 5.05972E+00
 5.07599E+00
 3.89698E+00
 3.84532E+00
 3.87025E+00
 2.28862E+00
 2.22525E+00
 2.25265E+00
 5.72185E+00
 5.71890E+00
 5.72432E+00
 5.08990E+00
 5.05970E+00
 5.07682E+00
 3.89770E+00
 3.84533E+00
 3.87117E+00
 2.28918E+00
 2.22533E+00
 2.25355E+00
 5.72212E+00
 5.71972E+00
 5.72461E+00
 5.08973E+00
 5.05984E+00
 5.07636E+00
 3.89753E+00
 3.84523E+00
 3.87060E+00
 2.28896E+00
 2.22495E+00
 2.25284E+00
 5.70811E+00
 5.71870E+00
 5.71387E+00
 5.07866E+00
 5.05794E+00
 5.06762E+00
 3.88949E+00
 3.84244E+00
 3.86422E+00
 2.28500E+00
 2.22175E+00
 2.24970E+00
 5.64328E+00
 5.64280E+00
 5.65730E+00
 5.01810E+00
 4.99295E+00
 5.01483E+00
 3.84082E+00
 3.79569E+00
 3.82166E+00
 2.25461E+00
 2.19838E+00
 2.22336E+00
 5.64366E+00
 5.63665E+00
 5.65915E+00
 5.01862E+00
 4.98941E+00
 5.01717E+00
 3.84178E+00
 3.79526E+00
 3.82466E+00
 2.25578E+00
 2.20070E+00
 2.22642E+00
 5.64290E+00
 5.63561E+00
 5.65810E+00
 5.01790E+00
 4.98835E+00
 5.01605E+00
 3.84077E+00
 3.79402E+00
 3.82337E+00
 2.25479E+00
 2.19963E+00
 2.22529E+00
 5.64398E+00
 5.63492E+00
 5.65805E+00
 5.01946E+00
 4.98987E+00
 5.01774E+00
 3.84208E+00
 3.79709E+00
 3.82612E+00
 2.25566E+00
 2.20346E+00
 2.22845E+00
           2            1          336 float
 2.20187E+01
 2.16715E+01
 2.17728E+01
 1.95638E+01
 1.91664E+01
 1.93035E+01
 1.49463E+01
 1.45395E+01
 1.46955E+01
 8.68697E+00
 8.32561E+00
 8.47689E+00
 2.20090E+01
 2.16823E+01
 2.17561E+01
 1.95534E+01
 1.91865E+01
 1.92850E+01
 1.49365E+01
 1.45658E+01
 1.46777E+01
 8.67918E+00
 8.35323E+00
 8.46251E+00
 2.20061E+01
 2.16823E+01
 2.17545E+01
 1.95517E+01
 1.91877E+01
 1.92862E+01
 1.49358E+01
 1.45675E+01
 1.46806E+01
 8.67937E+00
 8.35503E+00
 8.46645E+00
 2.20189E+01
 2.16743E+01
 2.17478E+01
 1.95623E+01
 1.91752E+01
 1.92734E+01
 1.49439E+01
 1.45532E+01
 1.46648E+01
 8.68424E+00
 8.34152E+00
 8.45072E+00
 2.08374E+01
 2.08313E+01
 2.08495E+01
 1.84911E+01
 1.84384E+01
 1.84830E+01
 1.40975E+01
 1.40077E+01
 1.40726E+01
 8.17064E+00
 8.06106E+00
 8.13498E+00
 2.08643E+01
 2.08157E+01
 2.08141E+01
 1.85300E+01
 1.84185E+01
 1.84346E+01
 1.41434E+01
 1.39852E+01
 1.40157E+01
 8.21455E+00
 8.03951E+00
 8.07518E+00
 2.08687E+01
 2.08311E+01
 2.08802E+01
 1.85336E+01
 1.84313E+01
 1.85252E+01
 1.41454E+01
 1.39940E+01
 1.41199E+01
 8.21515E+00
 8.04344E+00
 8.17890E+00
 2.08322E+01
 2.08158E+01
 2.08135E+01
 1.84874E+01
 1.84259E+01
 1.84422E+01
 1.40955E+01
 1.39993E+01
 1.40295E+01
 8.16999E+00
 8.05804E+00
 8.09255E+00
 2.08531E+01
 2.08450E+01
 2.08636E+01
 1.85124E+01
 1.84592E+01
 1.85042E+01
 1.41217E+01
 1.40308E+01
 1.40962E+01
 8.19257E+00
 8.08117E+00
 8.15577E+00
 2.08480E+01
 2.08293E+01
 2.08269E+01
 1.85087E+01
 1.84464E+01
 1.84623E+01
 1.41196E+01
 1.40224E+01
 1.40530E+01
 8.19197E+00
 8.07816E+00
 8.11448E+00
 2.08505E+01
 2.08434E+01
 2.08618E+01
 1.85063E+01
 1.84541E+01
 1.84981E+01
 1.41128E+01
 1.40241E+01
 1.40878E+01
 8.18320E+00
 8.07474E+00
 8.14738E+00
 2.08458E+01
 2.08282E+01
 2.08263E+01
 1.85026E+01
 1.84416E+01
 1.84577E+01
 1.41107E+01
 1.40156E+01
 1.40461E+01
 8.18250E+00
 8.07129E+00
 8.10696E+00
 2.05887E+01
 2.06313E+01
 2.05586E+01
 1.82882E+01
 1.82516E+01
 1.82076E+01
 1.39602E+01
 1.38530E+01
 1.38416E+01
 8.10866E+00
 7.95344E+00
 7.97174E+00
 2.05912E+01
 2.06132E+01
 2.05389E+01
 1.82769E+01
 1.82408E+01
 1.81936E+01
 1.39372E+01
 1.38514E+01
 1.38344E+01
 8.07852E+00
 7.96220E+00
 7.97315E+00
 2.06495E+01
 2.07406E+01
 2.07396E+01
 1.83437E+01
 1.83494E+01
 1.83983E+01
 1.40045E+01
 1.39284E+01
 1.40193E+01
 8.13629E+00
 7.99699E+00
 8.11250E+00
 2.06271E+01
 2.06931E+01
 2.07416E+01
 1.83074E+01
 1.83149E+01
 1.83743E+01
 1.39588E+01
 1.39108E+01
 1.39737E+01
 8.08904E+00
 7.99778E+00
 8.05460E+00
 2.06507E+01
 2.07107E+01
 2.07573E+01
 1.83404E+01
 1.83419E+01
 1.83983E+01
 1.39975E+01
 1.39421E+01
 1.40014E+01
 8.12570E+00
 8.02605E+00
 8.07969E+00
 2.06391E+01
 2.07030E+01
 2.07522E+01
 1.83222E+01
 1.83276E+01
 1.83873E+01
 1.39749E+01
 1.39240E+01
 1.39870E+01
 8.10320E+00
 8.00848E+00
 8.06527E+00
 2.06143E+01
 2.06325E+01
 2.05573E+01
 1.83089E+01
 1.82676E+01
 1.82225E+01
 1.39746E+01
 1.38807E+01
 1.38701E+01
 8.11385E+00
 7.98713E+00
 8.00804E+00
 2.06037E+01
 2.06280E+01
 2.05518E+01
 1.82934E+01
 1.82584E+01
 1.82131E+01
 1.39556E+01
 1.38690E+01
 1.38578E+01
 8.09516E+00
 7.97618E+00
 7.99566E+00
 2.02239E+01
 2.02415E+01
 2.02507E+01
 1.79844E+01
 1.79000E+01
 1.79522E+01
 1.37520E+01
 1.35802E+01
 1.36668E+01
 8.02187E+00
 7.79614E+00
 7.89735E+00
 2.02256E+01
 2.02402E+01
 2.02519E+01
 1.79872E+01
 1.79000E+01
 1.79551E+01
 1.37546E+01
 1.35805E+01
 1.36702E+01
 8.02403E+00
 7.79667E+00
 7.90080E+00
 2.02256E+01
 2.02418E+01
 2.02516E+01
 1.79858E+01
 1.78994E+01
 1.79524E+01
 1.37531E+01
 1.35790E+01
 1.36670E+01
 8.02245E+00
 7.79441E+00
 7.89733E+00
 2.01793E+01
 2.02353E+01
 2.02168E+01
 1.79490E+01
 1.78901E+01
 1.79241E+01
 1.37266E+01
 1.35671E+01
 1.36467E+01
 8.00948E+00
 7.78150E+00
 7.88779E+00
 1.99222E+01
 1.99334E+01
 1.99827E+01
 1.77101E+01
 1.76309E+01
 1.77074E+01
 1.35351E+01
 1.33800E+01
 1.34727E+01
 7.88966E+00
 7.68731E+00
 7.77953E+00
 1.99239E+01
 1.99107E+01
 1.99887E+01
 1.77124E+01
 1.76178E+01
 1.77154E+01
 1.35389E+01
 1.33784E+01
 1.34833E+01
 7.89442E+00
 7.69642E+00
 7.79095E+00
 1.99215E+01
 1.99076E+01
 1.99856E+01
 1.77101E+01
 1.76146E+01
 1.77121E+01
 1.35357E+01
 1.33746E+01
 1.34795E+01
 7.89122E+00
 7.69312E+00
 7.78747E+00
 1.99276E+01
 1.99036E+01
 1.99843E+01
 1.77173E+01
 1.76186E+01
 1.77171E+01
 1.35416E+01
 1.33848E+01
 1.34887E+01
 7.89485E+00
 7.70711E+00
 7.79904E+00
           3            1          336 float
 2.24630E+01
 2.20670E+01
 2.21819E+01
 1.99570E+01
 1.95149E+01
 1.96654E+01
 1.52370E+01
 1.47907E+01
 1.49601E+01
 8.81714E+00
 8.41879E+00
 8.58696E+00
 2.24508E+01
 2.20850E+01
 2.21615E+01
 1.99445E+01
 1.95416E+01
 1.96436E+01
 1.52255E+01
 1.48227E+01
 1.49395E+01
 8.80799E+00
 8.45151E+00
 8.57029E+00
 2.24478E+01
 2.20851E+01
 2.21604E+01
 1.99427E+01
 1.95430E+01
 1.96451E+01
 1.52248E+01
 1.48246E+01
 1.49428E+01
 8.80831E+00
 8.45364E+00
 8.57472E+00
 2.24625E+01
 2.20754E+01
 2.21515E+01
 1.99549E+01
 1.95289E+01
 1.96304E+01
 1.52340E+01
 1.48089E+01
 1.49252E+01
 8.81377E+00
 8.43859E+00
 8.55700E+00
 2.12446E+01
 2.12443E+01
 2.12552E+01
 1.88510E+01
 1.88016E+01
 1.88406E+01
 1.43594E+01
 1.42680E+01
 1.43308E+01
 8.27426E+00
 8.15610E+00
 8.23355E+00
 2.12833E+01
 2.12218E+01
 2.12206E+01
 1.89012E+01
 1.87752E+01
 1.87932E+01
 1.44152E+01
 1.42404E+01
 1.42747E+01
 8.32730E+00
 8.13014E+00
 8.17231E+00
 2.12875E+01
 2.12368E+01
 2.12972E+01
 1.89044E+01
 1.87876E+01
 1.88934E+01
 1.44168E+01
 1.42488E+01
 1.43874E+01
 8.32741E+00
 8.13392E+00
 8.28586E+00
 2.12397E+01
 2.12292E+01
 2.12276E+01
 1.88475E+01
 1.87894E+01
 1.88076E+01
 1.43576E+01
 1.42599E+01
 1.42942E+01
 8.27406E+00
 8.15331E+00
 8.19419E+00
 2.12631E+01
 2.12610E+01
 2.12723E+01
 1.88753E+01
 1.88254E+01
 1.88647E+01
 1.43867E+01
 1.42945E+01
 1.43576E+01
 8.29993E+00
 8.17971E+00
 8.25787E+00
 2.12582E+01
 2.12458E+01
 2.12441E+01
 1.88718E+01
 1.88131E+01
 1.88309E+01
 1.43850E+01
 1.42864E+01
 1.43209E+01
 8.29979E+00
 8.17696E+00
 8.21996E+00
 2.12595E+01
 2.12585E+01
 2.12693E+01
 1.88680E+01
 1.88194E+01
 1.88575E+01
 1.43766E+01
 1.42866E+01
 1.43479E+01
 8.28896E+00
 8.17204E+00
 8.24807E+00
 2.12549E+01
 2.12437E+01
 2.12424E+01
 1.88646E+01
 1.88073E+01
 1.88253E+01
 1.43748E+01
 1.42785E+01
 1.43130E+01
 8.28872E+00
 8.16875E+00
 8.21099E+00
 2.11644E+01
 2.11890E+01
 2.11083E+01
 1.87993E+01
 1.87425E+01
 1.86944E+01
 1.43396E+01
 1.42101E+01
 1.41978E+01
 8.28504E+00
 8.10142E+00
 8.12497E+00
 2.11583E+01
 2.11767E+01
 2.10962E+01
 1.87794E+01
 1.87373E+01
 1.86864E+01
 1.43094E+01
 1.42135E+01
 1.41959E+01
 8.24861E+00
 8.11462E+00
 8.13023E+00
 2.12201E+01
 2.13060E+01
 2.13154E+01
 1.88492E+01
 1.88473E+01
 1.89077E+01
 1.43798E+01
 1.42910E+01
 1.43953E+01
 8.31078E+00
 8.14897E+00
 8.28279E+00
 2.11850E+01
 2.12617E+01
 2.13049E+01
 1.88011E+01
 1.88162E+01
 1.88720E+01
 1.43241E+01
 1.42770E+01
 1.43392E+01
 8.25482E+00
 8.15374E+00
 8.21465E+00
 2.12131E+01
 2.12851E+01
 2.13255E+01
 1.88383E+01
 1.88483E+01
 1.88999E+01
 1.43663E+01
 1.43127E+01
 1.43701E+01
 8.29525E+00
 8.18615E+00
 8.24274E+00
 2.11980E+01
 2.12742E+01
 2.13188E+01
 1.88168E+01
 1.88310E+01
 1.88879E+01
 1.43407E+01
 1.42920E+01
 1.43548E+01
 8.26959E+00
 8.16590E+00
 8.22718E+00
 2.11853E+01
 2.12031E+01
 2.11203E+01
 1.88148E+01
 1.87701E+01
 1.87204E+01
 1.43495E+01
 1.42476E+01
 1.42355E+01
 8.28700E+00
 8.14334E+00
 8.16895E+00
 2.11728E+01
 2.11979E+01
 2.11144E+01
 1.87977E+01
 1.87606E+01
 1.87108E+01
 1.43292E+01
 1.42358E+01
 1.42234E+01
 8.26673E+00
 8.13212E+00
 8.15643E+00
 2.04997E+01
 2.05626E+01
 2.05640E+01
 1.82311E+01
 1.81823E+01
 1.82295E+01
 1.39302E+01
 1.37798E+01
 1.38661E+01
 8.08177E+00
 7.85427E+00
 7.96451E+00
 2.05016E+01
 2.05616E+01
 2.05655E+01
 1.82340E+01
 1.81826E+01
 1.82328E+01
 1.39333E+01
 1.37806E+01
 1.38701E+01
 8.08474E+00
 7.85546E+00
 7.96881E+00
 2.04997E+01
 2.05608E+01
 2.05629E+01
 1.82307E+01
 1.81796E+01
 1.82278E+01
 1.39295E+01
 1.37766E+01
 1.38644E+01
 8.08083E+00
 7.85089E+00
 7.96291E+00
 2.04608E+01
 2.05486E+01
 2.05342E+01
 1.81996E+01
 1.81654E+01
 1.82046E+01
 1.39074E+01
 1.37610E+01
 1.38484E+01
 8.07051E+00
 7.83548E+00
 7.95649E+00
 2.01734E+01
 2.02092E+01
 2.02506E+01
 1.79340E+01
 1.78736E+01
 1.79444E+01
 1.36948E+01
 1.35497E+01
 1.36404E+01
 7.93666E+00
 7.72896E+00
 7.82589E+00
 2.01754E+01
 2.01869E+01
 2.02558E+01
 1.79371E+01
 1.78613E+01
 1.79521E+01
 1.36998E+01
 1.35495E+01
 1.36513E+01
 7.94275E+00
 7.74046E+00
 7.83843E+00
 2.01737E+01
 2.01848E+01
 2.02538E+01
 1.79355E+01
 1.78594E+01
 1.79503E+01
 1.36977E+01
 1.35472E+01
 1.36490E+01
 7.94071E+00
 7.73850E+00
 7.83641E+00
 2.01833E+01
 2.01795E+01
 2.02517E+01
 1.79449E+01
 1.78623E+01
 1.79544E+01
 1.37049E+01
 1.35571E+01
 1.36581E+01
 7.94471E+00
 7.75375E+00
 7.84903E+00
           4            1          336 float
 3.62446E+01
 3.59007E+01
 3.60206E+01
 3.22132E+01
 3.17567E+01
 3.19417E+01
 2.45829E+01
 2.40583E+01
 2.42890E+01
 1.41610E+01
 1.36198E+01
 1.38758E+01
 3.62354E+01
 3.59224E+01
 3.60051E+01
 3.22017E+01
 3.17943E+01
 3.19216E+01
 2.45705E+01
 2.41076E+01
 2.42666E+01
 1.41488E+01
 1.36754E+01
 1.38534E+01
 3.62340E+01
 3.59229E+01
 3.60060E+01
 3.22015E+01
 3.17964E+01
 3.19258E+01
 2.45714E+01
 2.41107E+01
 2.42733E+01
 1.41507E+01
 1.36792E+01
 1.38617E+01
 3.62432E+01
 3.59136E+01
 3.59956E+01
 3.22094E+01
 3.17803E+01
 3.19065E+01
 2.45776E+01
 2.40901E+01
 2.42477E+01
 1.41547E+01
 1.36565E+01
 1.38329E+01
 3.54082E+01
 3.53738E+01
 3.54073E+01
 3.14249E+01
 3.13098E+01
 3.13874E+01
 2.39242E+01
 2.37419E+01
 2.38556E+01
 1.37090E+01
 1.34835E+01
 1.36205E+01
 3.54471E+01
 3.53510E+01
 3.53663E+01
 3.14872E+01
 3.12780E+01
 3.13273E+01
 2.40041E+01
 2.37044E+01
 2.37823E+01
 1.37970E+01
 1.34424E+01
 1.35356E+01
 3.54485E+01
 3.53605E+01
 3.54465E+01
 3.14874E+01
 3.12846E+01
 3.14489E+01
 2.40023E+01
 2.37075E+01
 2.39324E+01
 1.37940E+01
 1.34422E+01
 1.37039E+01
 3.54060E+01
 3.53640E+01
 3.53790E+01
 3.14247E+01
 3.13032E+01
 3.13533E+01
 2.39260E+01
 2.37391E+01
 2.38176E+01
 1.37121E+01
 1.34853E+01
 1.35765E+01
 3.54272E+01
 3.53914E+01
 3.54251E+01
 3.14547E+01
 3.13400E+01
 3.14176E+01
 2.39630E+01
 2.37808E+01
 2.38945E+01
 1.37517E+01
 1.35233E+01
 1.36613E+01
 3.54250E+01
 3.53817E+01
 3.53966E+01
 3.14545E+01
 3.13335E+01
 3.13829E+01
 2.39647E+01
 2.37783E+01
 2.38568E+01
 1.37548E+01
 1.35253E+01
 1.36201E+01
 3.54212E+01
 3.53870E+01
 3.54196E+01
 3.14430E+01
 3.13301E+01
 3.14055E+01
 2.39459E+01
 2.37669E+01
 2.38775E+01
 1.37317E+01
 1.35087E+01
 1.36431E+01
 3.54195E+01
 3.53777E+01
 3.53929E+01
 3.14427E+01
 3.13238E+01
 3.13734E+01
 2.39475E+01
 2.37643E+01
 2.38426E+01
 1.37345E+01
 1.35096E+01
 1.36030E+01
 3.53800E+01
 3.53424E+01
 3.53017E+01
 3.14298E+01
 3.12654E+01
 3.12666E+01
 2.39615E+01
 2.36888E+01
 2.37308E+01
 1.37732E+01
 1.34175E+01
 1.34981E+01
 3.53652E+01
 3.53421E+01
 3.52992E+01
 3.13956E+01
 3.12746E+01
 3.12695E+01
 2.39113E+01
 2.37070E+01
 2.37392E+01
 1.37117E+01
 1.34462E+01
 1.35124E+01
 3.54201E+01
 3.54256E+01
 3.54771E+01
 3.14689E+01
 3.13417E+01
 3.14754E+01
 2.39958E+01
 2.37496E+01
 2.39516E+01
 1.37988E+01
 1.34562E+01
 1.37078E+01
 3.53839E+01
 3.54040E+01
 3.54483E+01
 3.14094E+01
 3.13380E+01
 3.14059E+01
 2.39189E+01
 2.37645E+01
 2.38489E+01
 1.37122E+01
 1.34899E+01
 1.35832E+01
 3.54113E+01
 3.54275E+01
 3.54683E+01
 3.14537E+01
 3.13771E+01
 3.14389E+01
 2.39766E+01
 2.38145E+01
 2.38908E+01
 1.37763E+01
 1.35421E+01
 1.36272E+01
 3.53952E+01
 3.54149E+01
 3.54600E+01
 3.14257E+01
 3.13535E+01
 3.14219E+01
 2.39390E+01
 2.37829E+01
 2.38674E+01
 1.37334E+01
 1.35074E+01
 1.36011E+01
 3.53912E+01
 3.53664E+01
 3.53243E+01
 3.14371E+01
 3.13109E+01
 3.13124E+01
 2.39653E+01
 2.37509E+01
 2.37957E+01
 1.37716E+01
 1.34892E+01
 1.35752E+01
 3.53785E+01
 3.53601E+01
 3.53177E+01
 3.14160E+01
 3.12982E+01
 3.13001E+01
 2.39370E+01
 2.37335E+01
 2.37785E+01
 1.37393E+01
 1.34710E+01
 1.35554E+01
 3.48930E+01
 3.49078E+01
 3.49527E+01
 3.10399E+01
 3.08725E+01
 3.09928E+01
 2.37092E+01
 2.33820E+01
 2.35641E+01
 1.36886E+01
 1.32372E+01
 1.34609E+01
 3.48950E+01
 3.49079E+01
 3.49550E+01
 3.10438E+01
 3.08744E+01
 3.09978E+01
 2.37144E+01
 2.33851E+01
 2.35710E+01
 1.36948E+01
 1.32410E+01
 1.34693E+01
 3.48914E+01
 3.49042E+01
 3.49504E+01
 3.10371E+01
 3.08667E+01
 3.09890E+01
 2.37055E+01
 2.33746E+01
 2.35594E+01
 1.36842E+01
 1.32291E+01
 1.34559E+01
 3.48694E+01
 3.48918E+01
 3.49335E+01
 3.10207E+01
 3.08506E+01
 3.09771E+01
 2.36957E+01
 2.33559E+01
 2.35536E+01
 1.36825E+01
 1.32091E+01
 1.34578E+01
 3.46793E+01
 3.46823E+01
 3.47223E+01
 3.08366E+01
 3.06804E+01
 3.07753E+01
 2.35380E+01
 2.32442E+01
 2.33825E+01
 1.35701E+01
 1.31707E+01
 1.33368E+01
 3.46834E+01
 3.46760E+01
 3.47299E+01
 3.08440E+01
 3.06888E+01
 3.07892E+01
 2.35488E+01
 2.32670E+01
 2.34021E+01
 1.35832E+01
 1.32058E+01
 1.33602E+01
 3.46826E+01
 3.46753E+01
 3.47293E+01
 3.08436E+01
 3.06887E+01
 3.07892E+01
 2.35487E+01
 2.32672E+01
 2.34023E+01
 1.35836E+01
 1.32063E+01
 1.33609E+01
 3.46893E+01
 3.46782E+01
 3.47326E+01
 3.08489E+01
 3.07037E+01
 3.08017E+01
 2.35519E+01
 2.32923E+01
 2.34225E+01
 1.35842E+01
 1.32392E+01
 1.33868E+01
           5            1          336 float
 1.98181E+01
 1.98634E+01
 1.98754E+01
 1.76191E+01
 1.75727E+01
 1.76269E+01
 1.34376E+01
 1.33067E+01
 1.33971E+01
 7.70492E+00
 7.49830E+00
 7.61894E+00
 1.98188E+01
 1.98685E+01
 1.98763E+01
 1.76176E+01
 1.75879E+01
 1.76239E+01
 1.34341E+01
 1.33304E+01
 1.33905E+01
 7.69981E+00
 7.52849E+00
 7.60923E+00
 1.98196E+01
 1.98689E+01
 1.98777E+01
 1.76188E+01
 1.75890E+01
 1.76268E+01
 1.34356E+01
 1.33322E+01
 1.33947E+01
 7.70142E+00
 7.53071E+00
 7.61429E+00
 1.98175E+01
 1.98674E+01
 1.98749E+01
 1.76173E+01
 1.75836E+01
 1.76190E+01
 1.34347E+01
 1.33234E+01
 1.33825E+01
 7.70130E+00
 7.51932E+00
 7.59896E+00
 2.00396E+01
 2.00142E+01
 2.00299E+01
 1.77863E+01
 1.77147E+01
 1.77553E+01
 1.35331E+01
 1.34242E+01
 1.34850E+01
 7.71732E+00
 7.58419E+00
 7.65884E+00
 2.00473E+01
 2.00130E+01
 2.00306E+01
 1.78095E+01
 1.77066E+01
 1.77440E+01
 1.35702E+01
 1.34100E+01
 1.34633E+01
 7.76475E+00
 7.56394E+00
 7.62540E+00
 2.00450E+01
 2.00101E+01
 2.00348E+01
 1.78068E+01
 1.77030E+01
 1.77754E+01
 1.35669E+01
 1.34060E+01
 1.35182E+01
 7.76157E+00
 7.56045E+00
 7.70230E+00
 2.00417E+01
 2.00168E+01
 2.00344E+01
 1.77892E+01
 1.77183E+01
 1.77563E+01
 1.35365E+01
 1.34282E+01
 1.34820E+01
 7.72058E+00
 7.58855E+00
 7.64901E+00
 2.00445E+01
 2.00189E+01
 2.00345E+01
 1.77980E+01
 1.77272E+01
 1.77676E+01
 1.35515E+01
 1.34432E+01
 1.35038E+01
 7.74048E+00
 7.60601E+00
 7.68119E+00
 2.00465E+01
 2.00217E+01
 2.00393E+01
 1.78007E+01
 1.77310E+01
 1.77686E+01
 1.35548E+01
 1.34475E+01
 1.35012E+01
 7.74375E+00
 7.61053E+00
 7.67306E+00
 2.00412E+01
 2.00164E+01
 2.00313E+01
 1.77915E+01
 1.77216E+01
 1.77607E+01
 1.35418E+01
 1.34351E+01
 1.34939E+01
 7.72867E+00
 7.59722E+00
 7.67031E+00
 2.00434E+01
 2.00193E+01
 2.00369E+01
 1.77942E+01
 1.77254E+01
 1.77629E+01
 1.35450E+01
 1.34392E+01
 1.34928E+01
 7.73177E+00
 7.60108E+00
 7.66268E+00
 2.00800E+01
 2.00245E+01
 2.00605E+01
 1.78387E+01
 1.77143E+01
 1.77674E+01
 1.35929E+01
 1.34130E+01
 1.34779E+01
 7.77824E+00
 7.55790E+00
 7.62918E+00
 2.00714E+01
 2.00295E+01
 2.00634E+01
 1.78198E+01
 1.77237E+01
 1.77727E+01
 1.35650E+01
 1.34255E+01
 1.34844E+01
 7.74350E+00
 7.57420E+00
 7.63678E+00
 2.00696E+01
 2.00029E+01
 2.00391E+01
 1.78321E+01