# vtk DataFile Version 3.0
3d_beavrs                                                               
ASCII
DATASET UNSTRUCTURED_GRID
POINTS          133 float
  3.92180E-01  0.00000E+00  0.00000E+00
  4.00050E-01  0.00000E+00  0.00000E+00
  4.57200E-01  0.00000E+00  0.00000E+00
 -6.29920E-01 -6.29920E-01  0.00000E+00
  6.29920E-01 -6.29920E-01  0.00000E+00
  6.29920E-01  6.29920E-01  0.00000E+00
 -6.29920E-01  6.29920E-01  0.00000E+00
  3.92180E-01  0.00000E+00  5.00000E+01
  4.00050E-01  0.00000E+00  5.00000E+01
  3.92180E-01  0.00000E+00  5.00000E+01
  4.57200E-01  0.00000E+00  5.00000E+01
  4.00050E-01  0.00000E+00  5.00000E+01
  6.29920E-01 -6.29920E-01  5.00000E+01
  6.29920E-01  6.29920E-01  5.00000E+01
 -6.29920E-01  6.29920E-01  5.00000E+01
 -6.29920E-01 -6.29920E-01  5.00000E+01
  4.57200E-01  0.00000E+00  5.00000E+01
 -1.02096E-15  3.92180E-01  0.00000E+00
 -3.92180E-01 -4.74462E-16  0.00000E+00
  6.24612E-16 -3.92180E-01  0.00000E+00
 -8.63794E-16  4.00050E-01  0.00000E+00
 -4.00050E-01 -4.83983E-16  0.00000E+00
  6.37146E-16 -4.00050E-01  0.00000E+00
 -5.81118E-16  4.57200E-01  0.00000E+00
 -4.57200E-01 -1.97439E-15  0.00000E+00
  1.94639E-15 -4.57200E-01  0.00000E+00
  3.92180E-01  0.00000E+00  1.25000E+01
  3.92180E-01  0.00000E+00  2.50000E+01
  3.92180E-01  0.00000E+00  3.75000E+01
 -1.02096E-15  3.92180E-01  5.00000E+01
 -3.92180E-01 -4.74462E-16  5.00000E+01
  6.24612E-16 -3.92180E-01  5.00000E+01
  4.00050E-01  0.00000E+00  1.25000E+01
  4.00050E-01  0.00000E+00  2.50000E+01
  4.00050E-01  0.00000E+00  3.75000E+01
 -8.63794E-16  4.00050E-01  5.00000E+01
 -4.00050E-01 -4.83983E-16  5.00000E+01
  6.37146E-16 -4.00050E-01  5.00000E+01
  3.92180E-01  0.00000E+00  1.25000E+01
  3.92180E-01  0.00000E+00  2.50000E+01
  3.92180E-01  0.00000E+00  3.75000E+01
 -1.02096E-15  3.92180E-01  5.00000E+01
 -3.92180E-01 -4.74462E-16  5.00000E+01
  6.24612E-16 -3.92180E-01  5.00000E+01
  4.57200E-01  0.00000E+00  1.25000E+01
  4.57200E-01  0.00000E+00  2.50000E+01
  4.57200E-01  0.00000E+00  3.75000E+01
 -5.81118E-16  4.57200E-01  5.00000E+01
 -4.57200E-01 -1.97439E-15  5.00000E+01
  1.94639E-15 -4.57200E-01  5.00000E+01
  4.00050E-01  0.00000E+00  1.25000E+01
  4.00050E-01  0.00000E+00  2.50000E+01
  4.00050E-01  0.00000E+00  3.75000E+01
 -8.63794E-16  4.00050E-01  5.00000E+01
 -4.00050E-01 -4.83983E-16  5.00000E+01
  6.37146E-16 -4.00050E-01  5.00000E+01
  6.29920E-01 -6.29920E-01  1.25000E+01
  6.29920E-01 -6.29920E-01  2.50000E+01
  6.29920E-01 -6.29920E-01  3.75000E+01
  6.29920E-01  6.29920E-01  1.25000E+01
  6.29920E-01  6.29920E-01  2.50000E+01
  6.29920E-01  6.29920E-01  3.75000E+01
 -6.29920E-01  6.29920E-01  1.25000E+01
 -6.29920E-01  6.29920E-01  2.50000E+01
 -6.29920E-01  6.29920E-01  3.75000E+01
 -6.29920E-01 -6.29920E-01  1.25000E+01
 -6.29920E-01 -6.29920E-01  2.50000E+01
 -6.29920E-01 -6.29920E-01  3.75000E+01
  4.57200E-01  0.00000E+00  1.25000E+01
  4.57200E-01  0.00000E+00  2.50000E+01
  4.57200E-01  0.00000E+00  3.75000E+01
 -5.81118E-16  4.57200E-01  5.00000E+01
 -4.57200E-01 -1.97439E-15  5.00000E+01
  1.94639E-15 -4.57200E-01  5.00000E+01
 -7.15450E-17 -6.60876E-17  0.00000E+00
 -1.02096E-15  3.92180E-01  1.25000E+01
 -1.02096E-15  3.92180E-01  2.50000E+01
 -1.02096E-15  3.92180E-01  3.75000E+01
 -3.92180E-01 -4.74462E-16  1.25000E+01
 -3.92180E-01 -4.74462E-16  2.50000E+01
 -3.92180E-01 -4.74462E-16  3.75000E+01
  6.24612E-16 -3.92180E-01  1.25000E+01
  6.24612E-16 -3.92180E-01  2.50000E+01
  6.24612E-16 -3.92180E-01  3.75000E+01
 -7.15450E-17 -6.60876E-17  5.00000E+01
 -8.63794E-16  4.00050E-01  1.25000E+01
 -8.63794E-16  4.00050E-01  2.50000E+01
 -8.63794E-16  4.00050E-01  3.75000E+01
 -4.00050E-01 -4.83983E-16  1.25000E+01
 -4.00050E-01 -4.83983E-16  2.50000E+01
 -4.00050E-01 -4.83983E-16  3.75000E+01
  6.37146E-16 -4.00050E-01  1.25000E+01
  6.37146E-16 -4.00050E-01  2.50000E+01
  6.37146E-16 -4.00050E-01  3.75000E+01
 -1.02096E-15  3.92180E-01  1.25000E+01
 -1.02096E-15  3.92180E-01  2.50000E+01
 -1.02096E-15  3.92180E-01  3.75000E+01
 -3.92180E-01 -4.74462E-16  1.25000E+01
 -3.92180E-01 -4.74462E-16  2.50000E+01
 -3.92180E-01 -4.74462E-16  3.75000E+01
  6.24612E-16 -3.92180E-01  1.25000E+01
  6.24612E-16 -3.92180E-01  2.50000E+01
  6.24612E-16 -3.92180E-01  3.75000E+01
 -5.81118E-16  4.57200E-01  1.25000E+01
 -5.81118E-16  4.57200E-01  2.50000E+01
 -5.81118E-16  4.57200E-01  3.75000E+01
 -4.57200E-01 -1.97439E-15  1.25000E+01
 -4.57200E-01 -1.97439E-15  2.50000E+01
 -4.57200E-01 -1.97439E-15  3.75000E+01
  1.94639E-15 -4.57200E-01  1.25000E+01
  1.94639E-15 -4.57200E-01  2.50000E+01
  1.94639E-15 -4.57200E-01  3.75000E+01
 -8.63794E-16  4.00050E-01  1.25000E+01
 -8.63794E-16  4.00050E-01  2.50000E+01
 -8.63794E-16  4.00050E-01  3.75000E+01
 -4.00050E-01 -4.83983E-16  1.25000E+01
 -4.00050E-01 -4.83983E-16  2.50000E+01
 -4.00050E-01 -4.83983E-16  3.75000E+01
  6.37146E-16 -4.00050E-01  1.25000E+01
  6.37146E-16 -4.00050E-01  2.50000E+01
  6.37146E-16 -4.00050E-01  3.75000E+01
 -5.81118E-16  4.57200E-01  1.25000E+01
 -5.81118E-16  4.57200E-01  2.50000E+01
 -5.81118E-16  4.57200E-01  3.75000E+01
 -4.57200E-01 -1.97439E-15  1.25000E+01
 -4.57200E-01 -1.97439E-15  2.50000E+01
 -4.57200E-01 -1.97439E-15  3.75000E+01
  1.94639E-15 -4.57200E-01  1.25000E+01
  1.94639E-15 -4.57200E-01  2.50000E+01
  1.94639E-15 -4.57200E-01  3.75000E+01
 -7.15450E-17 -6.60876E-17  1.25000E+01
 -7.15450E-17 -6.60876E-17  2.50000E+01
 -7.15450E-17 -6.60876E-17  3.75000E+01

CELLS          336         1680
           4            0           17           74          130
           4            0           26           75          130
           4            0           17           75          130
           4           26           75          130          131
           4           26           27           76          131
           4           26           75           76          131
           4           27           76          131          132
           4           27           28           77          132
           4           27           76           77          132
           4           28           77           84          132
           4            7           28           29           84
           4           28           29           77           84
           4           18           19           74          130
           4           18           78           81          130
           4           18           19           81          130
           4           78           81          130          131
           4           78           79           82          131
           4           78           81           82          131
           4           79           82          131          132
           4           79           80           83          132
           4           79           82           83          132
           4           80           83           84          132
           4           30           31           80           84
           4           31           80           83           84
           4           17           18           74          130
           4           17           75           78          130
           4           17           18           78          130
           4           75           78          130          131
           4           75           76           79          131
           4           75           78           79          131
           4           76           79          131          132
           4           76           77           80          132
           4           76           79           80          132
           4           77           80           84          132
           4           29           30           77           84
           4           30           77           80           84
           4            0           19           74          130
           4           19           26           81          130
           4            0           19           26          130
           4           26           81          130          131
           4           27           81           82          131
           4           26           27           81          131
           4           27           82          131          132
           4           28           82           83          132
           4           27           28           82          132
           4           28           83           84          132
           4            7           31           83           84
           4            7           28           83           84
           4            0            1           19           32
           4           19           26           32           81
           4            0           19           26           32
           4           26           32           33           81
           4           27           33           81           82
           4           26           27           33           81
           4           27           33           34           82
           4           28           34           82           83
           4           27           28           34           82
           4            8           28           34           83
           4            7            8           31           83
           4            7            8           28           83
           4            0            1           20           85
           4            0           26           32           85
           4            0            1           32           85
           4           26           32           85           86
           4           26           27           33           86
           4           26           32           33           86
           4           27           33           86           87
           4           27           28           34           87
           4           27           33           34           87
[...]
CELL_DATA          336
FIELD Neutronics_Edits            1
           1            1          336 float
   1.000E+00
   1.000E+00
   1.000E+00
   1.000E+00
   1.000E+00
   1.000E+00
   1.000E+00
   1.000E+00
   1.000E+00
   1.000E+00
   1.000E+00
   1.000E+00
   1.000E+00
   1.000E+00
   1.000E+00
   1.000E+00
   1.000E+00
   1.000E+00
   1.000E+00
   1.000E+00
   1.000E+00
   1.000E+00
   1.000E+00
   1.000E+00
   1.000E+00
   1.000E+00
   1.000E+00
   1.000E+00
   1.000E+00
   1.000E+00
   1.000E+00
   1.000E+00
   1.000E+00
   1.000E+00
   1.000E+00
   1.000E+00
   1.000E+00
   1.000E+00
   1.000E+00
   1.000E+00
   1.000E+00
   1.000E+00
   1.000E+00
   1.000E+00
   1.000E+00
   1.000E+00
   1.000E+00
   1.000E+00
   2.000E+00
   2.000E+00
   2.000E+00
   2.000E+00
   2.000E+00
   2.000E+00
   2.000E+00
   2.000E+00
   2.000E+00
   2.000E+00
   2.000E+00
   2.000E+00
   2.000E+00
   2.000E+00
   2.000E+00
   2.000E+00
   2.000E+00
   2.000E+00
   2.000E+00
   2.000E+00
   2.000E+00
   2.000E+00
   2.000E+00
   2.000E+00
   2.000E+00
   2.000E+00
   2.000E+00
   2.000E+00
   2.000E+00
   2.000E+00
   2.000E+00
   2.000E+00
   2.000E+00
   2.000E+00
   2.000E+00
   2.000E+00
   2.000E+00
   2.000E+00
   2.000E+00
   2.000E+00
   2.000E+00
   2.000E+00
   2.000E+00
   2.000E+00
   2.000E+00
   2.000E+00
   2.000E+00
   2.000E+00
   2.000E+00
   2.000E+00
   2.000E+00
   2.000E+00
   2.000E+00
   2.000E+00
   2.000E+00
   2.000E+00
   2.000E+00
   2.000E+00
   2.000E+00
   2.000E+00
   2.000E+00
   2.000E+00
   2.000E+00
   2.000E+00
   2.000E+00
   2.000E+00
   2.000E+00
   2.000E+00
   2.000E+00
   2.000E+00
   2.000E+00
   2.000E+00
   2.000E+00
   2.000E+00
   2.000E+00
   2.000E+00
   2.000E+00
   2.000E+00
   2.000E+00
   2.000E+00
   2.000E+00
   2.000E+00
   2.000E+00
   2.000E+00
   2.000E+00
   2.000E+00
   2.000E+00
   2.000E+00
   2.000E+00
   2.000E+00
   2.000E+00
   2.000E+00
   2.000E+00
   2.000E+00
   2.000E+00
   2.000E+00
   3.000E+00
   3.000E+00
   3.000E+00
   3.000E+00
   3.000E+00
   3.000E+00
   3.000E+00
   3.000E+00
   3.000E+00
   3.000E+00
   3.000E+00
   3.000E+00
   3.000E+00
   3.000E+00
   3.000E+00
   3.000E+00
   3.000E+00
   3.000E+00
   3.000E+00
   3.000E+00
   3.000E+00
   3.000E+00
   3.000E+00
   3.000E+00
   3.000E+00
   3.000E+00
   3.000E+00
   3.000E+00
   3.000E+00
   3.000E+00
   3.000E+00
   3.000E+00
   3.000E+00
   3.000E+00
   3.000E+00
   3.000E+00
   3.000E+00
   3.000E+00
   3.000E+00
   3.000E+00
   3.000E+00
   3.000E+00
   3.000E+00
   3.000E+00
   3.000E+00
   3.000E+00
   3.000E+00
   3.000E+00
   3.000E+00
   3.000E+00
   3.000E+00
   3.000E+00
   3.000E+00
   3.000E+00
   3.000E+00
   3.000E+00
   3.000E+00
   3.000E+00
   3.000E+00
   3.000E+00
   3.000E+00
   3.000E+00
   3.000E+00
   3.000E+00
   3.000E+00
   3.000E+00
   3.000E+00
   3.000E+00
   3.000E+00
   3.000E+00
   3.000E+00
   3.000E+00
   3.000E+00
   3.000E+00
   3.000E+00
   3.000E+00
   3.000E+00
   3.000E+00
   3.000E+00
   3.000E+00
   3.000E+00
   3.000E+00
   3.000E+00
   3.000E+00
   3.000E+00
   3.000E+00
   3.000E+00
   3.000E+00
   3.000E+00
   3.000E+00
   3.000E+00
   3.000E+00
   3.000E+00
   3.000E+00
   3.000E+00
   3.000E+00
   4.000E+00
   4.000E+00
   4.000E+00
   4.000E+00
   4.000E+00
   4.000E+00
   4.000E+00
   4.000E+00
   4.000E+00
   4.000E+00
   4.000E+00
   4.000E+00
   4.000E+00
   4.000E+00
   4.000E+00
   4.000E+00
   4.000E+00
   4.000E+00
   4.000E+00
   4.000E+00
   4.000E+00
   4.000E+00
   4.000E+00
   4.000E+00
   4.000E+00
   4.000E+00
   4.000E+00
   4.000E+00
   4.000E+00
   4.000E+00
   4.000E+00
   4.000E+00
   4.000E+00
   4.000E+00
   4.000E+00
   4.000E+00
   4.000E+00
   4.000E+00
   4.000E+00
   4.000E+00
   4.000E+00
   4.000E+00
   4.000E+00
   4.000E+00
   4.000E+00
   4.000E+00
   4.000E+00
   4.000E+00
   4.000E+00
   4.000E+00
   4.000E+00
   4.000E+00
   4.000E+00
   4.000E+00
   4.000E+00
   4.000E+00
   4.000E+00
   4.000E+00
   4.000E+00
   4.000E+00
   4.000E+00
   4.000E+00
   4.000E+00
   4.000E+00
   4.000E+00
   4.000E+00
   4.000E+00
   4.000E+00
   4.000E+00
   4.000E+00
   4.000E+00
   4.000E+00
   4.000E+00
   4.000E+00
   4.000E+00
   4.000E+00
   4.000E+00
   4.000E+00
   4.000E+00
   4.000E+00
   4.000E+00
   4.000E+00
   4.000E+00
   4.000E+00
   4.000E+00
   4.000E+00
   4.000E+00
   4.000E+00
   4.000E+00
   4.000E+00
   4.000E+00
   4.000E+00
   4.000E+00
   4.000E+00
   4.000E+00
   4.000E+00
