# vtk DataFile Version 3.0
six_group_keig_analytical.inp                                           
ASCII
DATASET UNSTRUCTURED_GRID
POINTS           29 float
 -5.00000E+00 -5.00000E+00 -5.00000E+00
 -5.00000E+00 -9.26963E-01 -9.26963E-01
 -5.00000E+00 -5.00000E+00 -8.88178E-16
 -2.32177E+00 -2.38208E+00 -2.46194E+00
 -8.01817E-01 -1.08450E-01 -1.59203E-01
  9.26963E-01 -9.26963E-01 -5.00000E+00
  9.26963E-01 -5.00000E+00 -9.26963E-01
  5.00000E+00  5.00000E+00  5.00000E+00
  5.00000E+00  5.00000E+00 -8.88178E-16
  5.00000E+00  8.88178E-16  5.00000E+00
  2.05338E+00  1.18263E+00  2.10470E+00
 -8.88178E-16  5.00000E+00  5.00000E+00
 -9.26963E-01  9.26963E-01  5.00000E+00
 -9.26963E-01  5.00000E+00 -9.26963E-01
  8.88178E-16 -5.00000E+00  5.00000E+00
 -5.00000E+00 -8.88178E-16  5.00000E+00
  5.00000E+00  9.26963E-01 -9.26963E-01
  5.00000E+00 -5.00000E+00 -8.88178E-16
 -5.00000E+00  5.00000E+00 -8.88178E-16
 -5.00000E+00  8.88178E-16 -5.00000E+00
  5.00000E+00 -8.88178E-16 -5.00000E+00
  5.00000E+00 -5.00000E+00 -5.00000E+00
  8.88178E-16  5.00000E+00 -5.00000E+00
 -8.88178E-16 -5.00000E+00 -5.00000E+00
  5.00000E+00  5.00000E+00 -5.00000E+00
  5.00000E+00 -5.00000E+00  5.00000E+00
 -5.00000E+00  5.00000E+00 -5.00000E+00
 -5.00000E+00  5.00000E+00  5.00000E+00
 -5.00000E+00 -5.00000E+00  5.00000E+00

CELLS           61          305
           4            0            1            2            3
           4            2            1            4            3
           4            5            6            4            3
           4            7            8            9           10
           4            7           11            8           10
           4           12            4           13           10
           4           12           14           15            2
           4           12           14            4           10
           4            6            2            4            3
           4            6           16            4           10
           4            6           17           16           10
           4           14            6            4           10
           4           12            1           18            4
           4           19           13           18            4
           4           20            6           21           17
           4            5           22           19            4
           4            5            4           19            3
           4            5           16           22            4
           4           19            1            0            3
           4           19            4            1            3
           4            5            6           20           16
           4           13           16            8           10
           4            9           16           17           10
           4            5           21           20            6
           4           14           17            6           10
           4            5           19           23            3
           4            5           23           21            6
           4           22           20           24           16
           4            5           20           22           16
           4           20            6           17           16
           4            9           17           14           10
           4            9           25           14           17
           4            9           14           12           10
           4           23            0            2            3
           4           19           22           13            4
           4           19           26           18           13
           4           13            4           16           10
           4           12           14            2            4
           4           23            2            6            3
           4           14            6            2            4
           4           12           18           13            4
           4           22            8           13           16
           4           12            2            1            4
           4            7            9           11           10
           4            5           23            6            3
           4           12           15           27           18
           4           19            0           23            3
           4           11           12           27           18
           4            9            8           16           10
           4           22           24            8           16
           4           15           14           28            2
           4           19           22           26           13
           4           11           12           18           13
           4           12            1           15           18
           4           22           16           13            4
           4           11            9           12           10
           4           19           18            1            4
           4           11           12           13           10
           4           11           13            8           10
           4           12            2           15            1
           4            5            6           16            4

 CELL_TYPES           61
          10
          10
          10
          10
          10
          10
          10
          10
          10
          10
          10
          10
          10
          10
          10
          10
          10
          10
          10
          10
          10
          10
          10
          10
          10
          10
          10
          10
          10
          10
          10
          10
          10
          10
          10
          10
          10
          10
          10
          10
          10
          10
          10
          10
          10
          10
          10
          10
          10
          10
          10
          10
          10
          10
          10
          10
          10
          10
          10
          10
          10

CELL_DATA           61
FIELD Neutronics_Edits            1
           1            1           61 float
   1.000E+00
   1.000E+00
   1.000E+00
   1.000E+00
   1.000E+00
   1.000E+00
   1.000E+00
   1.000E+00
   1.000E+00
   1.000E+00
   1.000E+00
   1.000E+00
   1.000E+00
   1.000E+00
   1.000E+00
   1.000E+00
   1.000E+00
   1.000E+00
   1.000E+00
   1.000E+00
   1.000E+00
   1.000E+00
   1.000E+00
   1.000E+00
   1.000E+00
   1.000E+00
   1.000E+00
   1.000E+00
   1.000E+00
   1.000E+00
   1.000E+00
   1.000E+00
   1.000E+00
   1.000E+00
   1.000E+00
   1.000E+00
   1.000E+00
   1.000E+00
   1.000E+00
   1.000E+00
   1.000E+00
   1.000E+00
   1.000E+00
   1.000E+00
   1.000E+00
   1.000E+00
   1.000E+00
   1.000E+00
   1.000E+00
   1.000E+00
   1.000E+00
   1.000E+00
   1.000E+00
   1.000E+00
   1.000E+00
   1.000E+00
   1.000E+00
   1.000E+00
   1.000E+00
   1.000E+00
   1.000E+00
