# vtk DataFile Version 2.0
./meshes/godiva.thrm
ASCII
DATASET UNSTRUCTURED_GRID
POINTS 92 float
   1.6710906999999999        4.2874460000000001        5.7543540000000002     
   1.7849721999999999        6.0650420000000000        6.0819497000000000     
   0.0000000000000000        4.8594708000000004        4.3058332999999998     
   0.0000000000000000        5.4778051000000003        6.8689504000000001     
   1.6867454000000000        2.5312326000000001        8.2267007999999997     
   2.4989854999999999        1.5923022000000000        6.8941049999999997     
   3.3253653000000001        3.2490549000000000        7.4330968999999998     
   1.7385012000000000        3.1701845999999998        4.2170806000000001     
   3.4439413999999999        4.5144010000000003        4.0928721000000001     
   3.3611865000000001        3.0768770999999999        5.5115050999999999     
   3.4631297999999999        4.9502725999999999        6.3508496000000001     
   0.0000000000000000        2.6027927000000002        6.0180639999999999     
   5.1831956000000003        1.8048217000000000        4.6171702999999997     
   4.5914989000000004        1.7473346999999999        7.2673340000000000     
   4.9468769999999997        3.5202483999999998        6.3221455000000004     
   6.0180639999999999        0.0000000000000000        2.6027927000000002     
   6.2626761999999996        2.3196249000000000        2.8413911000000001     
   7.3424497000000004        1.7951296999999999        4.4175586999999998     
   6.3594666000000002        3.5510058000000000        4.8682523000000000     
   4.6323876000000004        3.4804306000000000        4.0942382999999998     
   2.8712580000000001        6.3005342000000004        2.2687341999999999     
   4.8904901000000001        6.4079094000000003        3.4567524999999999     
   3.4447969999999999        6.3812346000000000        4.9332738000000003     
   4.3121061000000003        5.2084412999999996        2.9535770000000001     
   3.1368029000000002        4.2538071000000004        1.7351562000000000     
   4.8594708000000004        4.3058332999999998        0.0000000000000000     
   2.6027927000000002        6.0180639999999999        0.0000000000000000     
   2.1370627999999998        3.7931925999999998        0.0000000000000000     
   4.4679755999999999        7.3501291000000002        1.7452027000000001     
   5.5594887999999996        3.7691813000000001        2.8274658000000001     
   6.0200418999999998        6.1270937999999999        1.7625191000000000     
   6.3194575000000004        5.0076108000000001        3.4237959000000000     
   3.1863893999999999        2.0798497000000000        0.0000000000000000     
   4.3819084000000004        3.0394619000000000        1.3098183999999999     
   2.1352942000000001        2.4707294000000002        2.6129153000000001     
   3.7931925999999998        0.0000000000000000        2.1370627999999998     
   2.1964294999999998        0.0000000000000000        0.0000000000000000     
   3.2413601999999999        1.4496579999999999        3.8426344000000001     
   0.0000000000000000        2.1370627999999998        3.7931925999999998     
   0.0000000000000000        3.1863893999999999        2.0798497000000000     
   0.0000000000000000        0.0000000000000000        2.1964294999999998     
   5.8985620000000001        2.0609731999999998        0.0000000000000000     
   4.3928589999999996        0.0000000000000000        0.0000000000000000     
   6.5892882000000004        0.0000000000000000        0.0000000000000000     
   3.2111768999999999        7.4613876000000001        3.3191172999999998     
   1.5014224000000000        8.0541344000000006        3.1093704999999998     
   2.5010870000000001        8.2327042000000006        1.7213277000000000     
   1.2575394000000000        7.0517187000000003        1.7506788000000000     
   1.5686013999999999        6.4455609000000003        4.1358924000000004     
   0.0000000000000000        5.8985620000000001        2.0609731999999998     
   1.9550060000000000        8.5654410999999993        0.0000000000000000     
   6.5938230000000004        3.3667438000000001        1.1234535999999999     
   7.4084434999999997        3.3958621000000000        3.1681786000000001     
   7.9954270999999997        3.1109219000000001        1.4819564999999999     
   4.2204256000000004        1.7718822999999999        3.1334580999999999     
   8.1736860000000000        1.7113540000000000        2.4787729000000001     
   7.0753155000000003        1.2885616000000000        1.5435247000000001     
   1.5617361000000001        4.6066203000000003        2.8496983000000000     
   8.5654410999999993        1.9550060000000000        0.0000000000000000     
   8.7857179999999993        0.0000000000000000        0.0000000000000000     
   8.5654410999999993        0.0000000000000000        1.9550060000000000     
   2.0609731999999998        0.0000000000000000        5.8985620000000001     
   4.3058332999999998        0.0000000000000000        4.8594708000000004     
   2.0798497000000000        0.0000000000000000        3.1863893999999999     
   0.0000000000000000        6.5892882000000004        0.0000000000000000     
   3.8119800000000001        7.9156579999999996        0.0000000000000000     
   7.2350864000000001        4.6243691000000000        1.6833853999999999     
   0.0000000000000000        4.3928589999999996        0.0000000000000000     
   5.0290784999999998        5.1256437000000004        5.0194029999999996     
   0.0000000000000000        0.0000000000000000        6.5892882000000004     
   3.0934989000000002        1.5349126000000000        8.0498694999999998     
   1.9550060000000000        0.0000000000000000        8.5654410999999993     
   3.8119800000000001        0.0000000000000000        7.9156579999999996     
   0.0000000000000000        2.1964294999999998        0.0000000000000000     
   1.7367325000000000        4.4650306999999998        7.3477272999999999     
   6.8689504000000001        0.0000000000000000        5.4778051000000003     
   0.0000000000000000        0.0000000000000000        4.3928589999999996     
   0.0000000000000000        3.8119800000000001        7.9156579999999996     
   7.9156579999999996        0.0000000000000000        3.8119800000000001     
   7.9156579999999996        3.8119800000000001        0.0000000000000000     
   0.0000000000000000        6.8689504000000001        5.4778051000000003     
   1.7423282000000000        7.2711940000000004        4.5971850999999999     
   0.0000000000000000        7.9156579999999996        3.8119800000000001     
   6.0996499000000002        1.8361765000000001        6.0295062000000001     
   0.0000000000000000        1.9550060000000000        8.5654410999999993     
   0.0000000000000000        8.7857179999999993        0.0000000000000000     
   0.0000000000000000        8.5654410999999993        1.9550060000000000     
   5.4778051000000003        6.8689504000000001        0.0000000000000000     
   6.8689504000000001        5.4778051000000003        0.0000000000000000     
   5.4778051000000003        0.0000000000000000        6.8689504000000001     
   0.0000000000000000        0.0000000000000000        0.0000000000000000     
   0.0000000000000000        0.0000000000000000        8.7857179999999993     
CELLS 274 1370
4    0    1    2    3
4    0    4    5    6
4    0    7    8    9
4    0    6    9   10
4    0    5    4   11
4    0    5   11    7
4   12    9   13   14
4   12   15   16   17
4   12   17   16   18
4   12   19   14   18
4   20   21   22   23
4   24   25   26   20
4   24   27   26   25
4   23   28   20   21
4   23   29   30   31
4   23   24   25   29
4   23   24   29   19
4   32   33   27   34
4   33   34   19   24
4   34   32   35   36
4   34   37    7   38
4   34   38   39   40
4   32   35   33   34
4   41   42   43   15
4   44   20   45   46
4   20   45   46   47
4   47   20   48   49
4   47   26   50   46
4   47   20   49   26
4   16   51   52   53
4   16   15   54   33
4   12   16   54   19
4   16   52   17   55
4   16   41   56   15
4   27   49   39   57
4   57   20    8   24
4   57   26   49   20
4   34   39   57   27
4    7   39    2   57
4   38    7   39    2
4   57    2   48   49
4   34    8   57    7
4   56   51   58   41
4   16   56   41   51
4   16   53   56   51
4   56   58   59   43
4   56   58   60   59
4   15   55   60   56
4   54   35   37   34
4   12    5   13    9
4   12   37    9   19
4   37    7    9   19
4   37    7   38   61
4   37    5    7   61
4   12   37   62    5
4   37   54   62   35
4   35   37   34   63
4   47   64   26   49
4   47   20   26   46
4   47   48   20   45
4   65   26   28   46
4   26   28   46   20
4   57    8   20   48
4   20   45   48   44
4   41   42   15   35
4   57   48   20   49
4   24   29   19   33
4   20   24   57   26
4   24   25   33   27
4   29   51   66   52
4   29   19   18   31
4   16   52   29   18
4   23   24   19    8
4   16   29   54   19
4   42   35   41   32
4   47   50   26   64
4   34   37   38   63
4   34    7   57   39
4   54   33   34   19
4   67   27   49   39
4   35   33   34   54
4   16   41   33   51
4   19   34   37    7
4   23   68    8   19
4   37   62    5   61
4    0    5    7    9
4   37    7    5    9
4    0    2   57    7
4    5    4   11   69
4    5   70   71   72
4    5   71    4   69
4   34   27   32   73
4    0    8   57   48
4    0   10    9    8
4    0    8   48    1
4    5   11    7   61
4    0   57    8    7
4   54   19   34   37
4    7    9   19    8
4   33   15   54   35
4    0    6   74    4
4    9    8   10   68
4   12    9   14   19
4    5    6    4   70
4    9    8   68   19
4    5    6   70   13
4   34    8    7   19
4   33   51   41   25
4   38   61   63   37
4   16   29   51   33
4   12   37   54   62
4   12   17   75   15
4   27   49   26   67
4   29   66   51   25
4   20   22    8   23
4    9   14   19   68
4   76   38   61   63
4    0   77    4   74
4    9   68   10   14
4    0   10   74    6
4    0   48   57    2
4   17   15   78   75
4    8   22   48    1
4    0   74   10    1
4   51   58   41   79
4   56   58   51   53
4   15   41   33   16
4   22   23   68    8
4   29   33   25   51
4   29   25   30   66
4   66   25   79   51
4    1    2    3   80
4   34   32   36   73
4   48   20   22    8
4   16   29   33   54
4   23   20   24    8
4    0    1   48    2
4   48    1   81   80
4   33   32   25   41
4   25   23   20   24
4   78   15   55   60
4   48   45   82   81
4   48   81   82   80
4   27   26   49   57
4   34   27   73   39
4   16   18   17   52
4   12   18   83   17
4   56   55   60   58
4   23   21   68   31
4   33   27   34   24
4    4   11   84   77
4   23   19   29   31
4   16   29   52   51
4   12   54   16   15
4   12   18   14   83
4   19   68   14   18
4   20   48   22   44
4   12   37   19   54
4   48   22   44   81
4   26   24   57   27
4   33   32   27   25
4   28   25   30   23
4    8   68   22   10
4   29   31   18   52
4   23   19   31   68
4   34   27   57   24
4   47   85   86   50
4    0    8    1   10
4    9   14    6   13
4   48    1   80    2
4   47   45   46   86
4   47   46   50   86
4   16   55   17   15
4   51   66   53   79
4   56   41   58   43
4   55   78   17   15
4   25   87   26   28
4    0    5    9    6
4    5   70    4   71
4   11    0   77    4
4    4   71   84   69
4    0   74    3   77
4   28   23   20   25
4   48   22   81    1
4    0    1    3   74
4   47   48   82   49
4   47   86   85   64
4   47   48   45   82
4   12   16   19   18
4   25   30   88   87
4   20   46   44   28
4   48   82   49    2
4   24   29   33   25
4   16   53   52   55
4   51   53   66   52
4   47   49   82   86
4   35   41   32   33
4   12   13    5   62
4   35   41   33   15
4   12   62   15   75
4    5   13    9    6
4   13   89   62   83
4    9   10    6   14
4   34   38   40   63
4   38   61   11   76
4   27   39   67   73
4   90   36   73   40
4    5   62   72   61
4   34   40   39   73
4   26   64   67   49
4   48   80   82    2
4   87   28   25   30
4   20   25   26   28
4   20   44   21   28
4   51   79   53   58
4   26   50   46   65
4    0    2    7   11
4   37   35   62   63
4    8    1   10   22
4   12   83   14   13
4    5   70   72   13
4   16   18   29   19
4    7   38   61   11
4   37   63   62   61
4    7   38   11    2
4   38   63   76   40
4   23   21   30   28
4   34    7   39   38
4    5   61   72   71
4   25   88   30   66
4   16   56   55   15
4   56   41   43   15
4   23   21   31   30
4   32   35   36   42
4   34   36   35   63
4   12   17   83   75
4   11   61   69   76
4    5   69   61   71
4    5   69   11   61
4   62   83   89   75
4    5   13   72   62
4   84   91   69   71
4   48   44   45   81
4   13   72   62   89
4    0   11   77    3
4   19   31   68   18
4   23   30   29   25
4   56   43   59   60
4   47   64   49   86
4   47   45   86   82
4   47   64   85   50
4   57   49   39    2
4   29   19   33   54
4    4   11   69   84
4   29   52   66   31
4   12    9   37    5
4   29   31   66   30
4   44   20   21   22
4   51   41   25   79
4   34   19   24    8
4   34   36   63   40
4   54   62   35   15
4   56   53   55   58
4   88   66   25   79
4   12   54   15   62
4   16   55   56   53
4   26   65   28   87
4   34   73   36   40
4   34   57    8   24
4   12   13   62   83
4   12   75   83   62
4   56   43   60   15
4    0   11    3    2
4   21   22   23   68
CELL_TYPES 274
10 10 10 10 10 10 10 10 10 10 10 10 10 10 10 10 10 10 10 10 10 10 10 10 10 
10 10 10 10 10 10 10 10 10 10 10 10 10 10 10 10 10 10 10 10 10 10 10 10 10 
10 10 10 10 10 10 10 10 10 10 10 10 10 10 10 10 10 10 10 10 10 10 10 10 10 
10 10 10 10 10 10 10 10 10 10 10 10 10 10 10 10 10 10 10 10 10 10 10 10 10 
10 10 10 10 10 10 10 10 10 10 10 10 10 10 10 10 10 10 10 10 10 10 10 10 10 
10 10 10 10 10 10 10 10 10 10 10 10 10 10 10 10 10 10 10 10 10 10 10 10 10 
10 10 10 10 10 10 10 10 10 10 10 10 10 10 10 10 10 10 10 10 10 10 10 10 10 
10 10 10 10 10 10 10 10 10 10 10 10 10 10 10 10 10 10 10 10 10 10 10 10 10 
10 10 10 10 10 10 10 10 10 10 10 10 10 10 10 10 10 10 10 10 10 10 10 10 10 
10 10 10 10 10 10 10 10 10 10 10 10 10 10 10 10 10 10 10 10 10 10 10 10 10 
10 10 10 10 10 10 10 10 10 10 10 10 10 10 10 10 10 10 10 10 10 10 10 10 CELL_DATA 274
SCALARS partitioning int 1
LOOKUP_TABLE partitioning
0
4
4
4
4
4
4
2
2
4
1
1
0
1
1
1
0
3
0
3
3
3
3
3
1
1
1
1
1
2
2
2
2
2
0
0
0
0
0
3
0
0
2
2
2
2
2
2
3
4
3
3
3
3
3
3
3
1
1
1
1
1
0
1
3
0
0
0
0
2
1
2
0
2
3
1
3
0
3
0
3
2
3
0
3
4
3
0
4
4
4
3
0
4
0
3
0
3
4
3
4
4
4
4
4
4
0
2
3
2
3
2
0
2
0
4
3
4
4
4
0
2
0
4
2
2
2
0
2
1
2
0
3
0
2
0
0
0
3
1
2
1
0
0
3
2
4
2
1
0
4
1
2
2
4
4
1
3
1
0
3
1
0
2
1
0
1
0
4
0
1
1
2
2
2
2
1
4
4
4
4
4
1
0
4
1
1
1
2
1
1
0
0
2
2
1
3
4
3
2
4
4
4
3
3
3
3
4
3
0
0
1
1
1
2
1
0
3
0
4
4
2
3
3
3
3
1
3
4
1
2
2
1
3
3
4
4
4
4
4
4
4
1
4
4
1
1
2
1
1
1
0
2
4
2
3
1
1
2
0
3
3
2
2
3
2
1
3
0
4
4
2
0
1
SCALARS region int 1
LOOKUP_TABLE region
1
1
1
1
1
1
1
1
1
1
1
1
1
1
1
1
1
1
1
1
1
1
1
1
1
1
1
1
1
1
1
1
1
1
1
1
1
1
1
1
1
1
1
1
1
1
1
1
1
1
1
1
1
1
1
1
1
1
1
1
1
1
1
1
1
1
1
1
1
1
1
1
1
1
1
1
1
1
1
1
1
1
1
1
1
1
1
1
1
1
1
1
1
1
1
1
1
1
1
1
1
1
1
1
1
1
1
1
1
1
1
1
1
1
1
1
1
1
1
1
1
1
1
1
1
1
1
1
1
1
1
1
1
1
1
1
1
1
1
1
1
1
1
1
1
1
1
1
1
1
1
1
1
1
1
1
1
1
1
1
1
1
1
1
1
1
1
1
1
1
1
1
1
1
1
1
1
1
1
1
1
1
1
1
1
1
1
1
1
1
1
1
1
1
1
1
1
1
1
1
1
1
1
1
1
1
1
1
1
1
1
1
1
1
1
1
1
1
1
1
1
1
1
1
1
1
1
1
1
1
1
1
1
1
1
1
1
1
1
1
1
1
1
1
1
1
1
1
1
1
1
1
1
1
1
1
1
1
1
1
1
1
1
1
1
1
1
1
1
1
1
1
1
1
SCALARS source int 1
LOOKUP_TABLE source
1
1
1
1
1
1
1
1
1
1
1
1
1
1
1
1
1
1
1
1
1
1
1
1
1
1
1
1
1
1
1
1
1
1
1
1
1
1
1
1
1
1
1
1
1
1
1
1
1
1
1
1
1
1
1
1
1
1
1
1
1
1
1
1
1
1
1
1
1
1
1
1
1
1
1
1
1
1
1
1
1
1
1
1
1
1
1
1
1
1
1
1
1
1
1
1
1
1
1
1
1
1
1
1
1
1
1
1
1
1
1
1
1
1
1
1
1
1
1
1
1
1
1
1
1
1
1
1
1
1
1
1
1
1
1
1
1
1
1
1
1
1
1
1
1
1
1
1
1
1
1
1
1
1
1
1
1
1
1
1
1
1
1
1
1
1
1
1
1
1
1
1
1
1
1
1
1
1
1
1
1
1
1
1
1
1
1
1
1
1
1
1
1
1
1
1
1
1
1
1
1
1
1
1
1
1
1
1
1
1
1
1
1
1
1
1
1
1
1
1
1
1
1
1
1
1
1
1
1
1
1
1
1
1
1
1
1
1
1
1
1
1
1
1
1
1
1
1
1
1
1
1
1
1
1
1
1
1
1
1
1
1
1
1
1
1
1
1
1
1
1
1
1
1
SCALARS BCs int 1
LOOKUP_TABLE BCs
0
0
0
0
0
0
0
0
0
0
0
0
1
0
0
0
0
0
0
0
0
1
0
1
0
0
0
0
0
0
0
0
0
0
0
0
0
0
0
1
0
0
0
0
0
1
0
0
0
0
0
0
0
0
0
0
0
0
0
0
0
0
0
0
1
0
0
0
0
0
0
0
0
0
1
1
0
0
0
1
0
0
0
0
0
0
0
0
0
0
0
1
0
0
0
0
0
0
0
0
0
0
0
0
0
0
0
0
0
0
0
0
1
0
0
0
1
0
0
0
0
1
0
0
1
0
0
0
0
0
0
1
1
0
0
0
0
0
1
0
1
0
0
0
0
0
0
0
0
0
1
0
0
0
0
0
0
0
0
0
1
0
0
0
0
0
0
0
0
0
0
0
0
0
1
0
1
0
0
0
0
0
0
0
0
0
1
0
0
1
0
1
0
0
0
1
0
0
0
1
0
0
0
0
1
1
1
1
1
1
1
0
0
0
0
1
0
1
0
0
0
0
0
1
1
1
0
0
1
0
0
0
0
1
1
0
1
1
0
1
0
1
0
1
1
0
0
1
1
0
1
1
0
1
0
0
0
0
1
0
1
1
0
1
0
0
1
0
0
0
0
1
1
0
